#!/bin/bash
# Rescapp Fsck run script
# Copyright Adrian Gibanel Lopez
# Licensed under the GNU PUBLIC LICENSE 3.0

source ${RESCATUX_LIB_FILE}

set -x
set -v

# Forces a fsck of a partition
# 1 parametre = Selected partition
function rtux_Fsck_Forced () {
  local SELECTED_PARTITION=$1
  local EXIT_VALUE=1 # Error by default

  fsck /dev/stdout -fy /dev/${SELECTED_PARTITION} \
  | tee >(zenity ${ZENITY_COMMON_OPTIONS} \
	--text "${RUNNING_STR}" \
	--progress \
	--pulsate \
	--auto-close) >> /dev/stdout
  EXIT_VALUE=$?
  return ${EXIT_VALUE}

} # rtux_Fsck_Forced ()

# fsck Main program

FSCK_FORCED_OK_STR="Filesystem check with automatic fix was OK! :)"
FSCK_FORCED_KO_STR="Filesystem check with automatic fix went wrong! :("

SELECTED_PARTITION=$(rtux_Choose_Partition)

if ( rtux_Fsck_Forced ${SELECTED_PARTITION} ) ; then
  rtux_Message_Success ${FSCK_FORCED_OK_STR}
else 
  rtux_Message_Failure ${FSCK_FORCED_KO_STR}
fi
