#!/bin/bash
# Rescapp Fsck run script
# Copyright (C) 2012 Adrian Gibanel Lopez
#
# Rescapp is free software: you can redistribute it and/or modify
# it under the terms of the GNU General Public License as published by
# the Free Software Foundation, either version 3 of the License, or
# (at your option) any later version.
#
# Rescapp is distributed in the hope that it will be useful,
# but WITHOUT ANY WARRANTY; without even the implied warranty of
# MERCHANTABILITY or FITNESS FOR A PARTICULAR PURPOSE.  See the
# GNU General Public License for more details.
#
# You should have received a copy of the GNU General Public License
# along with Rescapp.  If not, see <http://www.gnu.org/licenses/>.

source ${RESCATUX_LIB_FILE}

set -x
set -v

# Forces a fsck of a partition
# 1 parametre = Selected partition
function rtux_Fsck_Forced () {
  local SELECTED_PARTITION=$1
  local EXIT_VALUE=1 # Error by default

  fsck -fy /dev/${SELECTED_PARTITION} \
  | tee >(zenity ${ZENITY_COMMON_OPTIONS} \
	--text "${RUNNING_STR}" \
	--progress \
	--pulsate \
	--auto-close) >> /dev/stdout
  EXIT_VALUE=${PIPESTATUS[0]}
  return ${EXIT_VALUE}

} # rtux_Fsck_Forced ()

# fsck Main program

FSCK_FORCED_OK_STR="Filesystem check with automatic fix was OK! :)"
FSCK_FORCED_KO_STR="Filesystem check with automatic fix went wrong! :("

SELECTED_PARTITION=$(rtux_Choose_Partition)

if ( rtux_Fsck_Forced ${SELECTED_PARTITION} ) ; then
  rtux_Message_Success ${FSCK_FORCED_OK_STR}
else 
  rtux_Message_Failure ${FSCK_FORCED_KO_STR}
fi
